compound,mass_density,ratio_oxygen_by_transition_metal_atom,ratio_atoms_cell_by_cell_vol,electronic_energy_band_gap,energy_atom,Bravias_lattice,point_group,c/a_ratio,AGL_bulk_mod,AGL_Gruneisen_parameter,AGL_thermal_conductivity
Ni2O12Sb4 ,6.3481,3,0.086407189,0.8785,-5.91874,TET ,16,1.985710642,180.043,2.40259,4.63346
Ni2O12Ta4 ,8.11914,3,0.085185325,2.8841,-8.39283,TET ,16,1.927062763,228.417,2.03831,7.28957
Ni2O2Zr6 ,7.1175,3,0.061522182,0,-7.76733,ORCC ,8,1.541801314,148.305,1.95239,6.3661
Ni4O8Si2 ,5.20179,2,0.104686986,3.2679,-6.24257,FCC ,48,1,199.18,2.04499,8.1989
O10Ta4 ,7.73171,2.5,0.07375758,0.4338,-9.01481,ORC ,8,2.102756138,440.158,2.02405,39.2307
O10Ti6 ,3.66531,1.67,0.078939059,1.5644,-8.0437,ORCC ,8,1.83129425,170.243,1.96294,5.9605
O12Rh4Tb4 ,8.66614,3,0.084221874,1.7439,-7.01834,ORC ,8,1.449158265,190.197,2.15589,3.24417
O12Rh4U2 ,8.03756,3,0.0806965,1.4152,-6.96224,TET ,16,1.959566903,204.459,2.12026,3.82191
O12Sn4Sr4 ,5.9135,3,0.070017224,1.4249,-6.12347,ORC ,8,1.401484222,122.627,2.2935,2.90029
O12Ta4V2 ,7.76615,3,0.082722489,0.9934,-9.09327,TET ,16,1.915244015,223.783,2.04829,6.97398
O14Ru4Y4 ,6.01864,3.5,0.081044442,0.5591,-7.68351,FCC ,48,1,185.368,2.13241,4.76089
O14Sn4Tb4 ,7.41013,3.5,0.073569245,2.2244,-7.11239,FCC ,48,1,156.924,2.14594,4.11838
O14Sn4Y4 ,5.86971,3.5,0.07375546,2.2472,-7.43093,FCC ,48,1,155.813,2.14365,4.57514
O14Sn4Y4 ,5.87171,3.5,0.07378069,2.2481,-7.43095,FCC ,48,1,155.774,2.14398,4.57355
O14Tb4Ti4 ,6.48621,3.5,0.081741237,3.3021,-8.27691,FCC ,48,1,184.139,1.98844,6.61333
O14Ti4Y4 ,4.76875,3.5,0.081922345,3.2858,-8.59564,FCC ,48,1,182.609,1.98505,7.53142
O14V4Y4 ,5.014,3.5,0.0847977,0.847,-8.52016,FCC ,48,1,186.336,2.0304,6.22944
O1Sc1 ,4.28234,1,0.084615612,0,-7.77396,FCC ,48,1,145.005,2.3275,18.4362
O1Sn1Sr3 ,4.73595,0.33,0.035870579,0,-4.27255,CUB ,48,1,41.3158,2.06356,4.58204
O1Sn1Yb3 ,9.43152,0.33,0.043435958,0,-3.99092,CUB ,48,1,50.7189,2.02618,3.976
O1Ta4 ,15.2225,0.25,0.061957945,0,-9.64677,TET ,8,2.263713633,205.203,1.9503,7.12301
O1V1 ,5.01979,1,0.090317919,4.1743,-7.84912,FCC ,48,1,152.397,2.07689,24.6965
O24Sc16 ,3.61456,1.5,0.078918812,4.276,-8.58426,BCC ,24,1,159.052,1.9357,4.23674
O24Se8Sn4 ,4.13452,3,0.060140629,2.0808,-5.4556,CUB ,24,1,101.58,2.23936,1.74422
O24Y16 ,4.89501,1.5,0.065272021,4.06,-9.11,BCC ,24,1,136.09,2.05,2.642
O24Y16 ,4.89339,1.5,0.067477522,2.82,-6.83,BCC ,24,1,136.069,2.05,2.66
O28P8Sn4 ,3.27892,3.5,0.06747718,2.8172,-6.83176,CUB ,24,1,151.666,2.25804,2.57783
O28P8Ti4 ,2.62021,3.5,0.071127802,3.0926,-7.54412,CUB ,24,1,167.073,2.02954,5.41219
O28P8Zr4 ,2.81595,3.5,0.064,4.47,-8.03,CUB ,24,1,158.117,2.05,3.84
O2Sn1 ,7.05277,2,0.084557062,0,-5.7546,FCC ,48,1,169,2.39619,5.86997
O2Ti6 ,4.49022,0.33,0.067728881,0,-6.12596,HEX ,12,0.938002985,147.315,1.92157,6.73611
O2Zr1 ,5.98871,2,0.087796313,3.12,-9.43,FCC ,48,1,226.971,2.05,23.94
O2Zr6 ,6.60304,0.33,0.054907344,0,-9.02,HEX ,12,1,135.151,2.05,7.74
O3Pb1Ti1 ,7.86753,3,0.078158339,2.181,-7.02401,CUB ,48,1,162.783,2.05993,12.3097
O3Pb1Zr1 ,7.71287,3,0.067042102,2.28,-7.8,CUB ,48,1,149.057,2.05,9.84
O3Re1 ,7.08131,3,0.072835069,0,-7.71432,CUB ,48,1,225.006,2.16789,21.7342
O3Sn1Sr1 ,5.83693,3,0.069110697,0.3313,-6.04632,CUB ,48,1,123.381,2.34861,8.68576
O3Sn1Ti1 ,5.64874,3,0.07926229,1.7288,-6.9263,CUB ,48,1,163.746,2.05623,12.9608
O3Sr1Ti1 ,4.86033,3,0.079745707,2.29,-7.47382,CUB ,48,1,159.385,2.04082,21.4744
O3Sr1Zr1 ,5.09365,3,0.067613252,3.22,-8.21,CUB ,48,1,146.019,2.05,14.9
O3W1 ,6.7605,3,0.070240257,0.7293,-8.49173,CUB ,48,1,220.607,2.11115,24.0636
O4Pd8Zr16 ,7.95705,0.25,0.056500025,0,-7.46993,FCC ,48,1,143.869,2.03848,0.700031
O4Rb2Sc2 ,4.37391,2,0.064868722,3.7088,-6.67498,HEX ,24,3.892334094,98.6594,2.05728,6.85733
O4Re2 ,10.7534,2,0.089035963,0,-7.85571,TET ,16,0.557481866,274.144,2.23451,13.6076
O4Rh2 ,6.8307,2,0.091476941,0,-5.51893,TET ,16,0.685459629,216.937,2.25783,11.6446
O4S2Sc4 ,3.57596,1,0.069932026,2.4796,-7.89735,HEX ,24,3.549837199,135.545,1.92838,9.06028
O4S4Zr4 ,4.81625,1,0.062467465,2.42,-8.33,CUB ,12,1,3.02067,2.05,32.7949
O4Sn2 ,6.32339,2,0.075812425,0.3843,-5.93858,ORC ,8,1.498606903,157.623,2.40753,6.18729
O4Sn2 ,6.29945,2,0.075525468,0,-5.94071,TET ,16,0.672996115,157.783,2.41829,7.04549
O4Ta2 ,9.65966,2,0.081952659,0,-9.28412,TET ,16,0.577105116,244.013,2.05036,14.1696
O4Ti2 ,3.63372,2,0.082164318,2.5528,-8.05743,BCT ,16,1,192.444,1.98136,13.0947
O4Ti2 ,4.01394,2,0.090761809,2.2636,-8.04768,TET ,16,0.647059704,213.336,2.00128,22.7614
O4V2 ,4.46159,2,0.097184248,0.8364,-7.9177,TET ,16,0.671091117,228.429,2.15625,19.367
O4W2 ,10.426,2,0.087264858,0,-8.6772,TET ,16,0.53970818,276.801,2.11099,19.1694
O6Re2 ,8.21381,3,0.084483452,0,-7.6124,HEX ,12,0.916638294,249.637,2.1704,19.32
O6Sn2Sr2 ,5.92798,3,0.070188738,1.1654,-6.10236,BCT ,16,1,123.246,2.31156,5.80732
O6Sr2Ti2 ,4.88243,3,0.080108306,2.3866,-7.47625,BCT ,16,1.002457955,159.72,2.03896,12.185
O6Sr2Zr2 ,5.23782,3,0.069526524,3.56,-8.25,BCT ,16,1,149.456,2.05,10.31
O6Sr2Zr2 ,5.24499,3,0.069623338,3.58,-8.25,BCT ,16,1,146.59,2.05,10.18
O6W2 ,6.67335,3,0.069334905,0.739,-8.50881,TET ,16,0.73515668,212.967,2.10517,15.3918
O8P2Sc2 ,3.50882,4,0.090607067,4.8968,-7.97866,BCT ,16,1,193.581,2.00226,12.7395
O8P2Y2 ,4.12799,4,0.081119448,5.8,-8.3,BCT ,16,1,177.315,2.05,8.74
O8Pd4Y2 ,7.0988,2,0.081828278,0,-6.1516,BCT ,8,1,170.138,2.25132,3.61057
O8Pr2V2 ,4.6491,4,0.065658445,2.7237,-8.2441,BCT ,16,1,142.546,1.97185,4.8759
O8Re4 ,11.1626,2,0.092424289,0,-7.93832,ORC ,8,1.229031051,297.017,2.17979,12.2838
O8Rh4Zn2 ,7.06112,2,0.088804313,2.0292,-5.30993,FCC ,48,1,190.74,2.21642,4.07567
O8Sb2V2 ,5.69746,4,0.086977321,0.2038,-6.84859,BCT ,8,1,184.571,2.19186,9.59146
O8Si2Zr2 ,4.98541,4,0.09827205,4.04,-8.65,BCT ,12,1,239.681,2.05,11.57
O8Si2Zr2 ,4.48954,4,0.088495575,4.47,-8.73,BCT ,16,1,216.318,2.05,11.61
O8Sn2Zn4 ,6.36958,2,0.085663063,0.6598,-5.01568,FCC ,48,1,143.992,2.077,3.18526
O8Sn4 ,6.90904,2,0.082834028,0.1517,-5.85956,CUB ,24,1,169.617,2.40911,4.7526
O8Sn4 ,6.98984,2,0.083802979,0.181,-5.70972,ORC ,8,2.037775164,161.45,2.32326,3.02075
O8Sn4 ,6.42783,2,0.077064856,0.3589,-5.9266,ORC ,8,1.21453009,160.05,2.39633,4.08945
O8Ti4 ,3.4134,2,0.077182827,2.2613,-7.86991,BCT ,16,1,168.632,2.00109,15.6738
O8Ti4 ,4.09225,2,0.092532618,2.8179,-8.03853,ORC ,8,1.211715549,217.216,1.9943,11.6067
O8V2Y2 ,4.08029,4,0.072325755,2.9571,-8.44559,BCT ,16,1,155.411,1.95964,6.43648
O8Zr4 ,5.55922,2,0.081510664,3.56,-9.5,MCL ,4,1.038240918,212.734,2.05,8.86
O8Zr4 ,6.51721,2,0.095556617,2.85,-9.4,ORC ,8,1.94100295,247.548,2.05,8.37
O8Zr4 ,5.2618,2,0.077150572,4.1,-9.48,ORC ,8,0.949056604,200.688,2.05,8.33
O9W3 ,6.19541,3,0.064369049,0.7586,-8.48908,HEX ,24,0.514181498,199.588,2.1088,13.4881